% Model:              cofllow_parametric.mph
% Version:            COMSOL 6.2.0.339
% Date:               Apr 8 2025, 04:41
% Dimension:          2
% Nodes:              11631
% Expressions:        1
% Description:        Surface
% x                       y                        Volume fraction of fluid 1
44.703127390039526        -1186.9298194728603      2.7896360066392845E-6
0                         -1233.7499999999998      0
69.44444444444447         -1233.7499999999993      3.2473340793037764E-6
0                         -1165.2083333333328      0
138.88888888888923        -1233.7499999999993      8.220261777824867E-6
103.69464441655388        -1172.807450957288       9.72726507453281E-6
50.37654808919925         -1129.1333130736818      5.423405552207328E-6
0                         -1096.666666666666       0
172.6475601934044         -1180.1281282214295      1.96445596511996E-5
208.33333333333343        -1233.7499999999993      1.4116954637599655E-5
54.905142259314516        -1064.440520899755       1.140184128756161E-5
0                         -1028.1249999999995      0
55.617359532129456        -998.6593100162005       2.2910567998191134E-5
0                         -959.583333333333        0
242.67062040660093        -1183.0538862380265      3.1346117531860784E-5
277.77777777777817        -1233.7499999999993      2.0958171331186826E-5
61.46499383716225         -927.179368389985        4.425050390721719E-5
0                         -891.0416666666664       0
47.11893210899122         -867.1553613326234       5.399466656308416E-5
0                         -822.4999999999998       0
311.9453012600872         -1183.4574104499131      4.5693560197013205E-5
347.22222222222314        -1233.7499999999993      2.9339981282627825E-5
68.96551724137925         -822.4999999999998       1.1760265610183396E-4
381.32739816872396        -1183.5243108690604      6.347617891822033E-5
416.6666666666674         -1233.7499999999993      3.958494283984315E-5
105.16414946641461        -872.5557716064662       1.6600505077801753E-4
137.93103448275855        -822.4999999999998       4.0746525403434486E-4
450.74296105720003        -1183.5296365379686      8.487767846432348E-5
486.1111111111119         -1233.7499999999993      5.164332675400285E-5
171.23154140012124        -877.2596527529273       3.9604059183317997E-4
206.8965517241378         -822.4999999999997       9.961866156940058E-4
520.1484869931002         -1183.5183244509174      1.0974113211259517E-4
555.5555555555558         -1233.7499999999993      6.54288914937462E-5
240.37880655058416        -876.8544922812538       8.375209263558059E-4
275.862068965517          -822.4999999999998       0.0020370442102166653
589.541891029793          -1183.498407114592       1.3794652737741941E-4
625.0000000000006         -1233.7499999999993      8.092668946235726E-5
309.59795221630105        -876.1513932007828       0.0015410110240732244
344.8275862068962         -822.4999999999998       0.0036310610573880853
658.9136987328321         -1183.491259902057       1.6945030823678486E-4
694.444444444445          -1233.7499999999993      9.817574429926701E-5
378.9110687264799         -875.7088010930225       0.0025116288526414454
413.7931034482756         -822.4999999999998       0.005766746150568491
728.2585860229615         -1183.5075349417066      2.0430444829000471E-4
763.8888888888895         -1233.7499999999993      1.1725563849906973E-4
448.1241830781214         -875.5150499388774       0.0037180934477885064
482.7586206896548         -822.4999999999998       0.008366252356011628
797.6074136658068         -1183.5330948593482      2.4272921263646108E-4
833.3333333333339         -1233.7499999999993      1.3829977016066586E-4
517.2209062241316         -875.4752414529293       0.005123541041334279
551.7241379310341         -822.4999999999998       0.011349306752254096
866.9609825822571         -1183.5546404981858      2.8505235997478007E-4
902.7777777777782         -1233.7499999999993      1.614830873594153E-4
586.2535822211769         -875.47931219374         0.006706936355680981
620.6896551724134         -822.4999999999998       0.014666557748706843
936.3289990579027         -1183.5622887116356      3.3170191591735954E-4
972.2222222222223         -1233.7499999999993      1.8702172179185794E-4
655.2540824060112         -875.4728777992792       0.008461604805008682
689.6551724137925         -822.4999999999997       0.01829920392569495
1005.7112406723569        -1183.5563920708862      3.8315683111944665E-4
1041.6666666666667        -1233.7499999999993      2.151795804139489E-4
724.2461890574593         -875.4482125556931       0.01038957536058005
758.620689655172          -822.4999999999998       0.022249236052467314
1075.1029676163105        -1183.5457304924537      4.3994820317538874E-4
1111.1111111111115        -1233.7499999999993      2.4628804853155106E-4
793.2318133800962         -875.4344160568838       0.012494263509173043
827.5862068965511         -822.4999999999998       0.026530643548305477
1144.4929772517178        -1183.536891567846       5.02742315843463E-4
1180.5555555555559        -1233.7499999999993      2.8078812830556465E-4
862.2353948479407         -875.4080797205606       0.014791933141751645
896.5517241379305         -822.4999999999998       0.031169965842229752
1213.8751971727418        -1183.529969165799       5.724731142017214E-4
1250.0000000000005        -1233.7499999999993      3.1922638755388366E-4
931.0889678718096         -875.5711266443323       0.017246333336089936
965.5172413793097         -822.4999999999998       0.03618469975963601
1283.251083565093         -1183.5261297102272      6.502140729656158E-4
1319.4444444444448        -1233.7499999999993      3.621714907364737E-4
1000.153869088228         -875.4350244278398       0.02000475646964961
1034.482758620689         -822.4999999999998       0.041634096195572456
1352.6217446933174        -1183.5266509220644      7.369924432819586E-4
1388.888888888889         -1233.7499999999993      4.101044636923845E-4
1068.8751507542256        -875.665465914449        0.022892949869724566
1103.4482758620684        -822.4999999999998       0.04752192568973157
1421.9986926485556        -1183.5289591661624      8.336321553101822E-4
1458.3333333333333        -1233.7499999999993      4.6330984258424746E-4
1138.0323862851635        -875.5317214215418       0.026189154725692942
1172.4137931034477        -822.4999999999998       0.053950404797100115
1491.4086800368677        -1183.528993327797       9.405333356111711E-4
1527.7777777777778        -1233.7499999999993      5.216347494504392E-4
1206.6948473483349        -875.898682235373        0.02958434898783946
1241.379310344827         -822.4999999999998       0.060919931781054704
1560.8875529556292        -1183.522686517879       0.0010571162658652433
1597.2222222222224        -1233.7499999999993      5.840281137087233E-4
1275.8132764967086        -875.7821753781136       0.033547973057898695
1310.3448275862065        -822.4999999999998       0.06855775271162434
1630.482111877589         -1183.5342657521505      0.0011806265474516575
1666.6666666666663        -1233.7499999999993      6.494967812179508E-4
1344.8500820920954        -875.6028332404583       0.03795733182055361
1379.3103448275851        -822.4999999999998       0.07690232667961516
1700.2749782261048        -1183.7541902934208      0.0013047956727857413
1736.111111111111         -1233.7499999999993      7.190929134575086E-4
1413.8943041386547        -875.5625252546648       0.042745310444711304
1448.2758620689651        -822.4999999999998       0.08597081981918986
1769.7554638672939        -1184.1006127200285      0.001424604250753303
1805.555555555555         -1233.7499999999993      7.656877206886348E-4
1483.0480176597164        -875.4232054507443       0.04806206059977525
1517.2413793103444        -822.4999999999998       0.09576037175512253
1838.4350288619926        -1183.9934491114732      0.0014715694235049037
1875                      -1233.7499999999993      7.688494015598568E-4
1552.0187486242494        -875.4027165809375       0.053719544522739415
1586.206896551724         -822.4999999999998       0.10617192094289407
1908.3552618469112        -1180.509541742877       0.001535228324352711
1944.444444444444         -1233.7499999999993      7.585907193903285E-4
1978.487450239424         -1178.5530908811334      0.0015455941217838998
2013.888888888889         -1233.7499999999993      7.273746777057832E-4
1620.7659415539115        -875.5575776636996       0.05959201519143942
1655.172413793103         -822.4999999999998       0.11690316978410942
2049.066866499657         -1178.2356104468454      0.0014177855456016797
2083.333333333333         -1233.7499999999993      6.366674320279486E-4
1689.854212751928         -875.4243191759156       0.06582772540608417
1724.1379310344823        -822.4999999999998       0.1274593909725229
2118.806495799474         -1178.632828533786       0.0011384083917339582
2152.777777777778         -1233.7499999999993      5.023557655028377E-4
2188.191385876435         -1178.9198034814065      8.465785036197992E-4
2222.222222222222         -1233.7499999999993      3.6728686726594795E-4
1758.52229497168          -875.4619322705139       0.07156169807663726
1793.1034482758616        -822.4999999999998       0.1368336604118806
2257.521116263974         -1179.2070186579654      5.692884665978726E-4
2291.666666666666         -1233.7499999999993      2.4311520449238344E-4
2326.711469428103         -1180.5168031635908      3.453507489786789E-4
2361.111111111111         -1233.7499999999993      1.4848276723866682E-4
1826.4908084878405        -875.7021431828406       0.07591856705571409
1862.068965517241         -822.4999999999998       0.14359531413163729
2395.162996691824         -1182.7296783771508      2.0946552595990653E-4
2430.5555555555557        -1233.7499999999993      9.327838960926371E-5
2453.0349566042028        -1188.9070837521353      1.363496283861565E-4
2500                      -1233.7499999999998      5.5167005987843964E-5
1892.5644503270983        -875.9581720729824       0.07818576322572779
1931.0344827586202        -822.4999999999998       0.14421356303888355
2500                      -1165.2083333333328      1.3244586165650496E-4
1954.820695925521         -876.8598530249557       0.07638429035606842
2000                      -822.4999999999999       0.1288304137424885
2500                      -1096.666666666666       3.145546799852017E-4
2439.314710869434         -1129.0746467147303      3.00252645225596E-4
2060.0392527054655        -846.2673603059714       0.07821506160159719
2049.9999999999995        -781.3749999999999       0.16078658122270095
2443.797904650834         -1058.032919784159       6.96487671862589E-4
2500                      -1028.1249999999995      7.360010309259701E-4
2108.653986498666         -804.493207343528        0.0953934380558501
2100                      -740.2499999999999       0.1872554537421951
2443.4837567245645        -992.4635023976515       0.0015626254115195248
2500                      -959.583333333333        0.0017174549404991302
2159.5756069683725        -763.0832832852049       0.11012937431103997
2150                      -699.1249999999999       0.21252954708972616
2443.8563145691987        -924.7203066849569       0.0035995030759372604
2500                      -891.0416666666664       0.003939565285169366
2210.6310930167506        -720.6772221873775       0.12775620289863643
2199.9999999999995        -658                     0.24302547597140622
2444.4008181168324        -856.7444893212859       0.00820197812266854
2500                      -822.4999999999999       0.008853571997206822
2250                      -616.8749999999999       0.2848837720860904
2261.982731892968         -676.6949055838899       0.15573914191814187
2444.9138483778056        -788.8540941865182       0.018195538061820504
2500                      -753.9583333333333       0.019699590169869108
2306.9279899123185        -632.8785857757666       0.19913334850505504
2300                      -575.75                  0.333038160200514
2443.0327663513076        -720.9002036326489       0.03982902316409953
2500                      -685.4166666666666       0.04379148417197176
2358.2404588822646        -598.768237605798        0.21885303181198074
2350                      -534.625                 0.38066443550482254
2500                      -616.8749999999999       0.09489840534955929
2439.219694589905         -649.2571832881928       0.09009227512486218
2402.7174986127234        -555.4157805381751       0.26807445879570485
2400                      -493.5                   0.4301115796624784
2452.6267683863407        -588.0558772375355       0.15869241839311332
2500                      -548.3333333333331       0.1931183083625122
2450.425992203747         -520.2508224457277       0.29823307260445114
2450                      -452.3749999999999       0.4851563811123971
2500                      -479.79166666666663      0.3520884960222883
2500                      -411.24999999999994      0.5524389329791437
47.52689119167862         1188.9893114612344       2.936355731897322E-6
69.44444444444446         1233.7499999999993       3.357758738720129E-6
0                         1233.7499999999998       0
0                         1165.208333333333        0
106.2994175712066         1183.5971290480375       8.966088592021748E-6
138.8888888888889         1233.7499999999993       8.290875367800155E-6
0                         1096.666666666666        0
61.890593942742065        1128.6410949248027       6.9511859971393974E-6
172.57606317911245        1179.5158078884656       1.95957798426738E-5
208.33333333333334        1233.7499999999993       1.4154773937735676E-5
55.75808544173909         1057.5821109848928       1.2247016512367814E-5
0                         1028.1249999999995       0
54.55530526478038         991.8362772839903        2.308460959521419E-5
0                         959.5833333333331        0
241.47657111894554        1180.3276629815346       3.193928632050369E-5
277.7777777777778         1233.7499999999993       2.070245428564821E-5
50.0266256218887          926.818719915661         3.2924688314062145E-5
0                         891.0416666666665        0
44.41043426196601         869.1463202145115        4.554524863542575E-5
0                         822.4999999999999        0
310.3525611576584         1181.0665034396293       4.608999451194418E-5
347.2222222222223         1233.7499999999993       2.883780704787675E-5
68.96551724137943         822.4999999999999        1.1267121951108461E-4
380.6573009393065         1181.2220602560028       6.41992046028772E-5
416.6666666666667         1233.7499999999993       3.8919748842958235E-5
137.93103448275912        822.4999999999999        3.7727924984387595E-4
103.52416639297445        883.6649524320909        1.3457460514232356E-4
450.5158056807207         1181.3768021618278       8.590504129479815E-5
486.11111111111114        1233.7499999999993       5.084694858503713E-5
173.08647092274447        876.7695209228865        3.921625616646329E-4
206.89655172413833        822.4999999999999        9.521497514504151E-4
520.0299743815417         1181.3588461195866       1.1129942250864833E-4
555.5555555555557         1233.7499999999993       6.451378988781009E-5
241.844691977137          874.4520035840043        8.539816186915461E-4
275.86206896551755        822.4999999999999        0.0019847028514755616
589.5750790189244         1181.3747337979598       1.4015128377975472E-4
625                       1233.7499999999993       7.991663821826922E-5
310.1864743610576         873.336273506767         0.0015753949398591427
344.827586206897          822.4999999999999        0.0035697410364732285
659.0287591029486         1181.3686827314148       1.7248569765948574E-4
694.4444444444446         1233.7499999999993       9.70982508858853E-5
378.884234686736          873.1628871883647        0.0025531008790676823
413.79310344827604        822.4999999999999        0.005677471366019815
728.4468302659742         1181.3621043022638       2.0841353631284587E-4
763.8888888888891         1233.7499999999993       1.16154566363047E-4
448.10509742702686        873.2002923017131        0.003769973757025258
482.75862068965546        822.4999999999999        0.008234520027546322
797.8499961532422         1181.3514921245985       2.481832407130735E-4
833.3333333333334         1233.7499999999993       1.372235105688846E-4
517.1923325255389         873.2082561467807        0.005195999409029595
551.7241379310346         822.4999999999999        0.011174576572890893
867.2479372638937         1181.3481001034172       2.920656745885042E-4
902.7777777777775         1233.7499999999993       1.6048266408852374E-4
586.3533403239506         873.2262641961612        0.006813711215380769
620.6896551724146         822.4999999999999        0.014457504985532443
936.6470531805084         1181.3529315561361       3.404451997089941E-4
972.2222222222222         1233.7499999999993       1.8616468606791337E-4
655.4585596899167         873.2538608475004        0.008609602567219876
689.6551724137934         822.5                    0.01806637566831626
1006.0507092959556        1181.3696485265723       3.9380121184207084E-4
1041.6666666666667        1233.7499999999993       2.145663499274475E-4
724.5427573825214         873.2701119328948        0.010586228741153336
758.620689655173          822.4999999999999        0.022003569926310362
1075.457313619052         1181.395112247047        4.52771054674006E-4
1111.111111111111         1233.7499999999993       2.46060038819218E-4
793.6070790055767         873.2790758480262        0.012750919844999209
827.5862068965522         822.4999999999999        0.02628426664661998
1144.8602761081647        1181.420275476317        5.181891409163919E-4
1180.5555555555554        1233.7499999999993       2.8109724633651467E-4
862.655954933025          873.2784791007992        0.01511781677812607
896.5517241379317         822.4999999999999        0.030931927106928936
1214.2658343864289        1181.4388210870284       5.91071237981522E-4
1249.9999999999995        1233.7499999999993       3.2019873390376485E-4
931.6820435512403         873.2730135086778        0.017702756761923677
965.5172413793109         822.4999999999999        0.03597650781788764
1283.6755662513667        1181.4497445372306       6.725010235963946E-4
1319.4444444444441        1233.7499999999993       3.639017601499983E-4
1000.704836506174         873.2696638324993        0.02052759984145125
1034.4827586206902        822.4999999999999        0.04145689870921421
1353.0898276172582        1181.4563081529798       7.6350918150625E-4
1388.8888888888882        1233.7499999999993       4.127061547578581E-4
1069.7390474649742        873.2697166849775        0.02361963458499461
1103.4482758620693        822.4999999999998        0.047420599655104034
1422.5034410919825        1181.450753737712        8.650896238803218E-4
1458.3333333333333        1233.7499999999993       4.6695646864658436E-4
1138.7669552240036        873.2652531619921        0.02701340302465627
1172.4137931034488        822.4999999999998        0.05392237742734407
1491.9161303755639        1181.4238675348847       9.77835668146687E-4
1527.7777777777774        1233.7499999999993       5.265732468223705E-4
1207.8016473573377        873.2612114134273        0.030747119907109433
1241.3793103448281        822.4999999999999        0.06102563424779417
1561.3291028470803        1181.378983837799        0.0011010681531121724
1597.2222222222217        1233.7499999999993       5.906283402700163E-4
1276.8309252498657        873.2537021164544        0.034865275895767156
1310.3448275862072        822.4999999999998        0.06879606922478754
1630.7471422393126        1181.3279980323646       0.0012318987539113868
1666.6666666666658        1233.7499999999993       6.570223576819467E-4
1345.8409239281025        873.230453287369         0.039417737509687245
1379.3103448275867        822.5                    0.07729287922758954
1700.1759907339624        1181.2806455986372       0.0013646028081389927
1736.1111111111104        1233.7499999999993       7.220511953149877E-4
1414.7747317089613        873.1837252424069        0.044444665687826124
1448.2758620689658        822.4999999999999        0.08653831299647818
1769.6242324758573        1181.23870313997         0.0014890521687020986
1805.5555555555547        1233.7499999999993       7.781415312034801E-4
1483.866075138839         873.2010574445067        0.04993063674826714
1517.2413793103449        822.5                    0.09653410057978018
1839.109870358797         1181.1961568890617       0.001584727977127387
1874.9999999999995        1233.7499999999993       8.111578995068092E-4
1552.9138825298942        873.1725362153197        0.05590519894933543
1586.2068965517242        822.5                    0.10716274414654481
1908.641826520319         1181.1087311174178       0.001619226339408808
1944.444444444444         1233.7499999999993       8.058472303975606E-4
1621.9906607399314        873.1437633147347        0.06224750835337889
1655.1724137931037        822.4999999999999        0.11815619104636021
1978.1501556302749        1180.8487036568783       0.001569861901467573
2013.888888888888         1233.7499999999993       7.58888730629792E-4
1690.958364165215         873.0757570872214        0.06874377329044157
1724.137931034483         822.4999999999999        0.12895219930689716
2047.4674156109934        1180.1822273621742       0.0014495267735917805
2083.3333333333326        1233.7499999999993       6.78964095926049E-4
1759.900991340746         873.0473538618107        0.07488614478385847
1793.103448275862         822.4999999999998        0.13854937879139473
2116.110880727197         1178.7085473984625       0.0012793396457332351
2152.777777777777         1233.7499999999993       5.695980311128945E-4
1829.147528214731         873.1833132340871        0.0797802030908511
1862.0689655172416        822.4999999999999        0.14535196004436768
2185.7589896769846        1178.212213543542        0.001018193331949524
2222.2222222222217        1233.7499999999993       4.375734740033055E-4
1898.0356174489314        873.5232607964957        0.08203321346729608
1931.0344827586207        822.4999999999999        0.14670165961632842
2254.646886727529         1177.342511928127        7.16910694302797E-4
2291.666666666666         1233.7499999999993       2.936444838906871E-4
1965.763682915387         875.4768942051737        0.07839638205326804
2000                      822.4999999999999        0.13839259275406934
2321.762560951181         1177.5433562724484       4.437711136549005E-4
2361.111111111111         1233.7499999999993       1.7277227941947526E-4
2049.9999999999995        781.3749999999999        0.18138409708402947
2065.4671467340877        834.736067124893         0.10001691719915395
2393.631998789498         1172.3150633432451       2.63965751191364E-4
2430.5555555555557        1233.7499999999993       1.0040403935251963E-4
2100                      740.2499999999997        0.20961940724675898
2115.071491575595         797.2088690705651        0.11355776998264311
2449.5622692237935        1128.103094231911        3.0672919487673145E-4
2500                      1096.666666666666        3.237590168375659E-4
2500                      1165.2083333333328       1.4071237438273432E-4
2454.749964713769         1186.6252981816976       1.5006208436674218E-4
2500                      1233.7499999999998       5.963496226979448E-5
2161.3099840686214        760.9270230762468        0.12347023585319084
2150                      699.1249999999999        0.23190523905466653
2446.0968638895015        1061.477761438162        6.921651547044938E-4
2500                      1028.1249999999995       7.398032347906147E-4
2445.092185395849         992.9317673998993        0.001583495531134571
2500                      959.583333333333         0.00168572674746148
2210.2065588413734        719.5084260072547        0.14068371801802615
2199.9999999999995        657.9999999999999        0.258312608142257
2444.947308801634         923.9618362421986        0.00359999355864693
2500                      891.0416666666664        0.0038257713937730475
2260.827438072251         679.6664305589181        0.15852206366729626
2250                      616.8749999999999        0.2914412444499562
2444.941060935957         854.146901531997         0.008188599809043073
2500                      822.4999999999999        0.008670834947425599
2303.7609758257527        637.1359914165697        0.19401785258455695
2300                      575.75                   0.3337393280214971
2500                      753.9583333333333        0.019936494488367207
2442.2918522584723        784.9295202969496        0.018593260407140155
2349.0144338481973        594.9472932762835        0.23659730552764344
2350                      534.6249999999999        0.3807365944919727
2443.3285932523104        718.6034418242731        0.041117091558121155
2500                      685.4166666666667        0.044649703691863385
2400                      493.5                    0.4311774344508346
2400.2688996624765        559.3815503647633        0.2607555178907485
2447.6204796980746        652.3782845431236        0.0840068391604164
2500                      616.8749999999999        0.09703690804171727
2450                      452.37499999999994       0.49179923054120084
2450.057850062984         520.1673160993209        0.3029448793738015
2450.0782007154276        587.622346231163         0.16341102947378294
2500                      548.3333333333331        0.19803707155552364
2500                      479.79166666666663       0.3605412500792829
2500                      411.24999999999994       0.5627478084739713
2549.778850377713         -1186.9578806449495      7.865520649541491E-5
2549.5256951171245        -1119.4144896082041      1.8584950441058457E-4
2599.557700755425         -1140.1657612899003      1.1406054521612141E-4
2598.701468985711         -1074.4929869931213      2.5646490161634894E-4
2649.3365511331367        -1093.3736419348506      1.5850050029386775E-4
2549.1161505839023        -1052.9953087212548      4.2410106860779617E-4
2648.6263160875505        -1031.0722230391227      3.325442505561771E-4
2699.1154015108496        -1046.581522579801       2.007179869384368E-4
2549.847327049733         -987.9872826652463       9.332792667783307E-4
2548.8892559519913        1052.9673509905604       4.1995092180802107E-4
2549.4260301795684        1119.3022980518656       1.8713244518508976E-4
2549.7788503777124        1186.9578806449495       8.13283328816583E-5
2689.2071583092493        -987.7121581498756       4.1751936750200613E-4
2748.894251888562         -999.7894032247511       2.7571442300378113E-4
2551.9655553757275        -922.7950783579457       0.0020145255536521134
2549.453991193478         988.7660564155992        9.050185694173818E-4
2599.557700755425         1140.1657612899003       1.1241539893758201E-4
2551.319080979304         922.7265376277974        0.001986507244340907
2735.8544881811595        -940.2367763444477       6.247016537039851E-4
2798.6356123500536        -953.0325243909488       4.5697615938555813E-4
2785.952866623237         -894.4111095106136       0.00101438817850108
2846.2169278515667        -908.3060878195265       7.802301688882851E-4
2553.8823435089275        -855.4880927878096       0.004402710862021264
2598.3923596251743        1074.0896173280546       2.535230609667094E-4
2649.3365511331367        1093.3736419348506       1.5658830157294634E-4
2553.242934221119         855.221855287824         0.004434035417121507
3048.047790184536         -679.8414523202625       0.010235923003050429
3055.326879627925         -711.7427331497505       0.00676538583909303
3079.9533034267315        -688.5938947788723       0.008408808327994066
3096.2238595868116        -640.9965851004426       0.014219383906908245
3102.3380966917666        -667.5521891097392       0.010106118038721412
3122.6853079468015        -648.4258105300064       0.011777463635603391
3073.2803231714133        -659.4780265913047       0.012252588923033159
2833.942236910541         -853.2568605830419       0.0016255990333241543
2889.8777167774524        -867.2649462291945       0.001276923713875222
2878.320261314105         -816.5220354955924       0.0024960738844773678
2929.564258653121         -829.9595968660658       0.001980984200808167
3020.108336523628         -702.191717030067        0.008312999054221115
3028.2343229679495        -737.2097364101272       0.005267012060774512
2989.506313411152         -726.8312885055725       0.006566059723282502
2998.428698385453         -765.2270235176735       0.003974205851761892
2918.962525684668         -783.5743428516724       0.003649677658710049
2965.6383097280427        -796.0499888556394       0.002885321672020713
2955.9256282431224        -753.8393081641306       0.005021795571132248
2555.2260898066743        -787.5546696790566       0.009801622433600388
3117.0321795490186        -624.175732323204        0.016057464951695244
3141.1803846061853        -631.0404384701851       0.013382862034298948
2648.3274591058384        1030.9458005626136       3.3430346867280303E-4
2699.1154015108496        1046.581522579801        2.0565174969278122E-4
2554.568418987699         787.033322329153         0.010130789211171609
2555.7459774015815        -719.6379885337788       0.022128657907778404
3135.907590391356         -608.9077632270433       0.017733458832513316
3157.991951039224         -615.2375660231294       0.01492408810311796
2689.774228685781         986.0234475216909        4.4260198918189E-4
2748.894251888562         999.7894032247514        2.950387989796299E-4
2555.3496320815366        718.9569927247185        0.023050806743030505